 Gaussian 16, Revision A.03,
 Gaussian 16:  ES64L-G16RevA.03 25-Dec-2016

 ----------------------------------------------------------------------
 # opt=(maxcycles=85) freq=noraman hf/3-21g scrf=(smd,solvent=dmso) geo
 m=connectivity
 ----------------------------------------------------------------------

 -------------------
 Title Card Required
 -------------------
 Symbolic Z-matrix:
 Charge =  0 Multiplicity = 1

 SCF Done:  E(RHF) =  -572.969559538     A.U. after   12 cycles
 SCF Done:  E(RHF) =  -573.113462250     A.U. after   12 cycles
 SCF Done:  E(RHF) =  -573.123264528     A.U. after   14 cycles
 SCF Done:  E(RHF) =  -573.144819478     A.U. after   12 cycles
 SCF Done:  E(RHF) =  -573.145480067     A.U. after   11 cycles
 SCF Done:  E(RHF) =  -573.146891320     A.U. after   14 cycles
 SCF Done:  E(RHF) =  -573.070427638     A.U. after   13 cycles
 SCF Done:  E(RHF) =  -573.149818932     A.U. after   13 cycles
 SCF Done:  E(RHF) =  -573.151177811     A.U. after   14 cycles
 SCF Done:  E(RHF) =  -573.151496615     A.U. after   12 cycles
 SCF Done:  E(RHF) =  -573.151229368     A.U. after   13 cycles
 SCF Done:  E(RHF) =  -573.151563561     A.U. after   10 cycles
 SCF Done:  E(RHF) =  -573.151588186     A.U. after   11 cycles
 SCF Done:  E(RHF) =  -573.151590077     A.U. after    9 cycles
 Optimization completed.
    -- Stationary point found.
 Normal termination of Gaussian 16 at Mon May 10 16:30:07 2021.

 --------------------------------------------------------------
 #N Geom=AllCheck Guess=TCheck SCRF=Check GenChk RHF/3-21G Freq
 --------------------------------------------------------------

 Structure from the checkpoint file:  "AllylChloride.chk"
 -------------------
 Title Card Required
 -------------------
 Charge =  0 Multiplicity = 1

                         Standard orientation:
 ---------------------------------------------------------------------
 Center     Atomic      Atomic             Coordinates (Angstroms)
 Number     Number       Type             X           Y           Z
 ---------------------------------------------------------------------
      1          6           0       -2.188148   -0.341026   -0.265917
      2          1           0       -2.242636   -0.108330   -1.313766
      3          1           0       -3.010374   -0.892576    0.149120
      4          6           0       -0.043088    0.835296   -0.057062
      5          6           0       -1.169202    0.035546    0.479883
      6          1           0       -1.125305   -0.204827    1.525227
      7          1           0       -0.142319    1.112488   -1.089771
      8          1           0        0.256632    1.656906    0.566078
      9         17           0        1.568626   -0.278974   -0.045783
 ---------------------------------------------------------------------

 SCF Done:  E(RHF) =  -573.151590077     A.U. after    1 cycles

 The electronic state is 1-A.
 Alpha  occ. eigenvalues -- -104.07701 -11.24871 -11.18596 -11.17712 -10.46943
 Alpha  occ. eigenvalues --   -7.93309  -7.92970  -7.92963  -1.12073  -1.04790
 Alpha  occ. eigenvalues --   -0.91920  -0.77459  -0.67212  -0.62146  -0.57872
 Alpha  occ. eigenvalues --   -0.51865  -0.50418  -0.43465  -0.43119  -0.37579
 Alpha virt. eigenvalues --    0.12112   0.22565   0.29814   0.30350   0.33787
 Alpha virt. eigenvalues --    0.35954   0.38076   0.49504   0.58563   0.72827
 Alpha virt. eigenvalues --    0.80383   0.81301   0.85208   0.89394   0.92196

 Mulliken charges:
               1
     1  C   -0.411277
     2  H    0.252190
     3  H    0.254923
     4  C   -0.504990
     5  C   -0.263998
     6  H    0.276933
     7  H    0.315475
     8  H    0.318780
     9  Cl  -0.238035
 Sum of Mulliken charges =  -0.00000

 Dipole moment (field-independent basis, Debye):
    X=             -3.9063    Y=              2.0891    Z=             -0.1209  Tot=              4.4315
 Quadrupole moment (field-independent basis, Debye-Ang):
   XX=            -34.7426   YY=            -31.6142   ZZ=            -30.1402
   XY=              2.6316   XZ=              0.9470   YZ=             -0.6867

  Exact polarizability:  76.479   0.702  32.712  11.807   0.129  40.206
 Approx polarizability:  43.955  -0.037  22.124   6.033   0.181  26.153

                      1                      2                      3
                      A                      A                      A
 Frequencies --    113.0166               296.4410               440.9281
 Red. masses --      3.0312                 2.8380                 2.4680
 Frc consts  --      0.0228                 0.1469                 0.2827
 IR Inten    --      1.5397                29.4051                24.7076

                      4                      5                      6
                      A                      A                      A
 Frequencies --    543.7553               768.4132               978.4511
 Red. masses --      2.8078                 1.7036                 1.3769
 Frc consts  --      0.4891                 0.5927                 0.7767
 IR Inten    --    146.9963               144.8122                 3.7455

                      7                      8                      9
                      A                      A                      A
 Frequencies --   1013.7033              1131.2403              1173.3066
 Red. masses --      2.3444                 1.1008                 1.3366
 Frc consts  --      1.4194                 0.8300                 1.0841
 IR Inten    --     32.4864               107.3943                10.5259

                     10                     11                     12
                      A                      A                      A
 Frequencies --   1202.9660              1335.0995              1381.8646
 Red. masses --      1.2581                 1.4289                 1.1443
 Frc consts  --      1.0727                 1.5006                 1.2874
 IR Inten    --      2.0377                11.9554                95.9876

                     13                     14                     15
                      A                      A                      A
 Frequencies --   1456.1015              1595.6988              1621.0109
 Red. masses --      1.2712                 1.1551                 1.1381
 Frc consts  --      1.5880                 1.7329                 1.7620
 IR Inten    --      0.0164                18.5518                12.7808

                     16                     17                     18
                      A                      A                      A
 Frequencies --   1843.1900              3315.3727              3321.2159
 Red. masses --      4.0483                 1.0623                 1.0560
 Frc consts  --      8.1034                 6.8794                 6.8629
 IR Inten    --      2.7910                 6.8826                 6.0573

                     19                     20                     21
                      A                      A                      A
 Frequencies --   3354.8100              3398.9147              3409.0266
 Red. masses --      1.0952                 1.1153                 1.1153
 Frc consts  --      7.2624                 7.5916                 7.6368
 IR Inten    --      3.2021                 7.8916                 1.5012

 - Thermochemistry -
 -------------------
 Temperature   298.150 Kelvin.  Pressure   1.00000 Atm.
 Atom     1 has atomic number  6 and mass  12.00000

 Molecular mass:    76.00798 amu.
 Principal axes and moments of inertia in atomic units:
                           1         2         3
     Eigenvalues --    94.95636 657.43049 685.94693
           X            0.99971   0.02357   0.00541
           Y           -0.02313   0.99723  -0.07063
           Z           -0.00706   0.07048   0.99749
 This molecule is an asymmetric top.
 Rotational symmetry number  1.
 Rotational temperatures (Kelvin)      0.91214     0.13175     0.12627
 Rotational constants (GHZ):          19.00601     2.74514     2.63102
 Zero-point vibrational energy     201538.0 (Joules/Mol)
                                   48.16874 (Kcal/Mol)
 Warning -- explicit consideration of   4 degrees of freedom as
           vibrations may cause significant error
 Vibrational temperatures:    162.61   426.51   634.40   782.34  1105.58
          (Kelvin)           1407.77  1458.49  1627.60  1688.13  1730.80
                             1920.91  1988.19  2095.01  2295.85  2332.27
                             2651.94  4770.08  4778.49  4826.82  4890.28
                             4904.83

 Zero-point correction=                           0.076762 (Hartree/Particle)
 Thermal correction to Energy=                    0.081446
 Thermal correction to Enthalpy=                  0.082390
 Thermal correction to Gibbs Free Energy=         0.048732
 Sum of electronic and zero-point Energies=           -573.074828
 Sum of electronic and thermal Energies=              -573.070145
 Sum of electronic and thermal Enthalpies=            -573.069200
 Sum of electronic and thermal Free Energies=         -573.102858

                     E (Thermal)             CV                S
                      KCal/Mol        Cal/Mol-Kelvin    Cal/Mol-Kelvin
 Total                   51.108             14.719             70.839
 Electronic               0.000              0.000              0.000
 Translational            0.889              2.981             38.900
 Rotational               0.889              2.981             25.263
 Vibrational             49.330              8.757              6.676
 Vibration     1          0.607              1.939              3.216
 Vibration     2          0.690              1.680              1.437
 Vibration     3          0.801              1.381              0.824
 Vibration     4          0.899              1.153              0.557

 Optimization completed.
    -- Stationary point found.
 Normal termination of Gaussian 16 at Mon May 10 16:30:36 2021.
