 Gaussian 16, Revision A.03,
 Gaussian 16:  ES64L-G16RevA.03 25-Dec-2016

 ----------------------------------------------------------------------
 # opt=maxcycles=85 freq=noraman b3lyp/gen scrf=(smd,solvent=water) nos
 ymm geom=connectivity pseudo=read
 ----------------------------------------------------------------------

 -------------------
 Title Card Required
 -------------------
 Symbolic Z-matrix:
 Charge =  1 Multiplicity = 1

 SCF Done:  E(RB3LYP) =  -890.710328345     A.U. after   24 cycles
 SCF Done:  E(RB3LYP) =  -890.711733362     A.U. after   18 cycles
 SCF Done:  E(RB3LYP) =  -890.712845454     A.U. after   15 cycles
 SCF Done:  E(RB3LYP) =  -890.713325828     A.U. after   14 cycles
 SCF Done:  E(RB3LYP) =  -890.714541023     A.U. after   16 cycles
 SCF Done:  E(RB3LYP) =  -890.714523236     A.U. after   17 cycles
 SCF Done:  E(RB3LYP) =  -890.715713196     A.U. after   17 cycles
 SCF Done:  E(RB3LYP) =  -890.716212986     A.U. after   17 cycles
 SCF Done:  E(RB3LYP) =  -890.716263782     A.U. after   16 cycles
 SCF Done:  E(RB3LYP) =  -890.716364441     A.U. after   15 cycles
 SCF Done:  E(RB3LYP) =  -890.717143761     A.U. after   15 cycles
 SCF Done:  E(RB3LYP) =  -890.717245127     A.U. after   15 cycles
 SCF Done:  E(RB3LYP) =  -890.717332192     A.U. after   15 cycles
 SCF Done:  E(RB3LYP) =  -890.717302443     A.U. after   16 cycles
 SCF Done:  E(RB3LYP) =  -890.717481355     A.U. after   15 cycles
 SCF Done:  E(RB3LYP) =  -890.717538974     A.U. after   15 cycles
 SCF Done:  E(RB3LYP) =  -890.717577319     A.U. after   16 cycles
 SCF Done:  E(RB3LYP) =  -890.717595400     A.U. after   14 cycles
 SCF Done:  E(RB3LYP) =  -890.717604639     A.U. after   14 cycles
 Optimization completed.
    -- Stationary point found.
 Normal termination of Gaussian 16 at Tue Jun 25 15:57:54 2019.

 ------------------------------------------------------------------
 #N Geom=AllCheck Guess=TCheck SCRF=Check GenChk RB3LYP/ChkBas Freq
 ------------------------------------------------------------------

 Structure from the checkpoint file:  "Pd2p-ene-CO-transcis-P-fromciscis.chk"
 -------------------
 Title Card Required
 -------------------
 Charge =  1 Multiplicity = 1

                          Input orientation:
 ---------------------------------------------------------------------
 Center     Atomic      Atomic             Coordinates (Angstroms)
 Number     Number       Type             X           Y           Z
 ---------------------------------------------------------------------
      1          6           0        1.475709    0.450655    0.311179
      2          1           0        1.552618    1.431863    0.815080
      3          6           0        1.390117   -0.643281   -0.250333
      4          1           0        1.452213   -1.643411   -0.644777
      5         17           0        0.989577    3.391641    1.374018
      6          6           0       -1.889904    1.212928   -2.302665
      7          8           0       -2.769716    1.529632   -2.931931
      8         46           0       -0.309435    0.592634   -1.161820
      9          6           0        0.905537    1.028560   -2.544571
     10          8           0        1.631557    1.308107   -3.363429
 ---------------------------------------------------------------------

 SCF Done:  E(RB3LYP) =  -890.717604639     A.U. after    1 cycles

 Alpha  occ. eigenvalues -- -101.42767 -19.31762 -19.31205 -10.40646 -10.38653
 Alpha  occ. eigenvalues --  -10.27475 -10.27119  -9.35639  -7.11439  -7.11324
 Alpha  occ. eigenvalues --   -7.11266  -3.49040  -2.22465  -2.22279  -2.17279
 Alpha  occ. eigenvalues --   -1.22096  -1.21530  -0.83915  -0.70246  -0.64643
 Alpha  occ. eigenvalues --   -0.62715  -0.60924  -0.55929  -0.54305  -0.53642
 Alpha  occ. eigenvalues --   -0.53151  -0.52915  -0.51974  -0.51723  -0.43627
 Alpha  occ. eigenvalues --   -0.39903  -0.39132  -0.38967  -0.35136  -0.34154
 Alpha  occ. eigenvalues --   -0.24701  -0.24225  -0.24140
 Alpha virt. eigenvalues --   -0.19872  -0.11266  -0.09079  -0.06511  -0.06432
 Alpha virt. eigenvalues --   -0.01980  -0.01298   0.00842   0.03199   0.03789
 Alpha virt. eigenvalues --    0.04734   0.11298   0.13425   0.16744   0.18212

 Mulliken charges:
               1
     1  C    0.073270
     2  H    0.251089
     3  C   -0.170556
     4  H    0.315545
     5  Cl  -0.752604
     6  C    0.418310
     7  O   -0.112632
     8  Pd   0.692407
     9  C    0.385952
    10  O   -0.100781
 Sum of Mulliken charges =   1.00000

 Dipole moment (field-independent basis, Debye):
    X=             -3.9112    Y=             -8.2400    Z=            -15.6777  Tot=             18.1380
 Quadrupole moment (field-independent basis, Debye-Ang):
   XX=            -53.5541   YY=            -94.8886   ZZ=            -46.9130
   XY=            -16.1535   XZ=              0.1529   YZ=            -24.3546

  Exact polarizability: 123.554  14.351 169.649  53.730  73.495 179.582
 Approx polarizability: 150.768  24.252 206.028  63.080  87.351 204.823

 ******    1 imaginary frequencies (negative Signs) ******

                      1                      2                      3
                      A                      A                      A
 Frequencies --    -49.7912                49.6170                67.9900
 Red. masses --     12.7491                16.7147                16.8875
 Frc consts  --      0.0186                 0.0242                 0.0460
 IR Inten    --     28.6857                15.0547                 3.6670

                      4                      5                      6
                      A                      A                      A
 Frequencies --    100.6636               102.6793               123.2719
 Red. masses --     10.5510                 9.8420                 5.9703
 Frc consts  --      0.0630                 0.0611                 0.0535
 IR Inten    --     12.6166                 0.9593                62.6162

                      7                      8                      9
                      A                      A                      A
 Frequencies --    150.8423               177.4079               276.7454
 Red. masses --      3.9099                 6.0310                14.4118
 Frc consts  --      0.0524                 0.1118                 0.6503
 IR Inten    --      3.2218                15.8285                 7.4841

                     10                     11                     12
                      A                      A                      A
 Frequencies --    296.3721               334.1233               347.3885
 Red. masses --      8.3294                11.7271                10.1964
 Frc consts  --      0.4311                 0.7714                 0.7250
 IR Inten    --      0.6555                26.8065                28.6170

                     13                     14                     15
                      A                      A                      A
 Frequencies --    366.3822               431.7463               468.9598
 Red. masses --     12.3533                16.2595                13.1018
 Frc consts  --      0.9770                 1.7857                 1.6977
 IR Inten    --      4.3469                65.7981                76.8596

                     16                     17                     18
                      A                      A                      A
 Frequencies --    670.6562               738.7679               831.6592
 Red. masses --      1.3851                 1.2159                 1.0830
 Frc consts  --      0.3671                 0.3910                 0.4413
 IR Inten    --     32.0673                16.3404               141.8671

                     19                     20                     21
                      A                      A                      A
 Frequencies --    864.0866              1890.8390              2257.2700
 Red. masses --      1.0939                 3.1922                13.3637
 Frc consts  --      0.4812                 6.7244                40.1184
 IR Inten    --    106.8318                36.5485               458.6638

                     22                     23                     24
                      A                      A                      A
 Frequencies --   2289.9198              2900.0159              3405.2169
 Red. masses --     13.3632                 1.2126                 1.1657
 Frc consts  --     41.2858                 6.0083                 7.9639
 IR Inten    --    367.9501               499.8837               149.2153

 - Thermochemistry -
 -------------------
 Temperature   298.150 Kelvin.  Pressure   1.00000 Atm.
 Atom     1 has atomic number  6 and mass  12.00000

 Molecular mass:   222.87753 amu.
 Principal axes and moments of inertia in atomic units:
                           1         2         3
     Eigenvalues --  1433.339722686.158243079.37859
           X            0.48608   0.74624   0.45481
           Y            0.39369  -0.65162   0.64838
           Z            0.78021  -0.13611  -0.61053
 This molecule is an asymmetric top.
 Rotational symmetry number  1.
 Warning -- assumption of classical behavior for rotation
           may cause significant error
 Rotational temperatures (Kelvin)      0.06043     0.03224     0.02813
 Rotational constants (GHZ):           1.25912     0.67187     0.58607
    1 imaginary frequencies ignored.
 Zero-point vibrational energy     114498.3 (Joules/Mol)
                                   27.36575 (Kcal/Mol)
 Warning -- explicit consideration of  14 degrees of freedom as
           vibrations may cause significant error
 Vibrational temperatures:     71.39    97.82   144.83   147.73   177.36
          (Kelvin)            217.03   255.25   398.17   426.41   480.73
                              499.81   527.14   621.19   674.73   964.92
                             1062.92  1196.57  1243.23  2720.50  3247.71
                             3294.68  4172.48  4899.35

 Zero-point correction=                           0.043610 (Hartree/Particle)
 Thermal correction to Energy=                    0.054314
 Thermal correction to Enthalpy=                  0.055258
 Thermal correction to Gibbs Free Energy=         0.004913
 Sum of electronic and zero-point Energies=           -890.673995
 Sum of electronic and thermal Energies=              -890.663290
 Sum of electronic and thermal Enthalpies=            -890.662346
 Sum of electronic and thermal Free Energies=         -890.712692

                     E (Thermal)             CV                S
                      KCal/Mol        Cal/Mol-Kelvin    Cal/Mol-Kelvin
 Total                   34.083             33.173            105.961
 Electronic               0.000              0.000              0.000
 Translational            0.889              2.981             42.107
 Rotational               0.889              2.981             30.851
 Vibrational             32.305             27.211             33.004
 Vibration     1          0.595              1.978              4.833
 Vibration     2          0.598              1.969              4.211
 Vibration     3          0.604              1.949              3.441
 Vibration     4          0.605              1.947              3.403
 Vibration     5          0.610              1.930              3.048
 Vibration     6          0.618              1.902              2.662
 Vibration     7          0.628              1.870              2.356
 Vibration     8          0.678              1.716              1.554
 Vibration     9          0.690              1.680              1.437
 Vibration    10          0.716              1.607              1.240
 Vibration    11          0.725              1.581              1.178
 Vibration    12          0.739              1.541              1.095
 Vibration    13          0.793              1.401              0.853
 Vibration    14          0.826              1.319              0.740

                           ! Non-Optimized Parameters !
 Normal termination of Gaussian 16 at Tue Jun 25 15:59:25 2019.
